  -5.00000007E-02   1.00000002E-24
  -4.50000018E-02   1.00000002E-24
  -4.00000028E-02   1.00000002E-24
  -3.50000039E-02   1.00000002E-24
  -3.00000049E-02   1.00000002E-24
  -2.50000060E-02   1.00000002E-24
  -2.00000070E-02   1.00000002E-24
  -1.50000080E-02   1.00000002E-24
  -1.00000091E-02   1.00000002E-24
  -5.00001013E-03   1.00000002E-24
  -1.11758709E-08   1.00000002E-24
   4.99998778E-03   1.00000002E-24
   9.99998674E-03   1.00000002E-24
   1.49999820E-02   1.00000002E-24
   1.99999847E-02   1.00000002E-24
   2.49999873E-02   1.00000002E-24
   2.99999826E-02   1.00000002E-24
   3.49999778E-02   1.00000002E-24
   3.99999805E-02   1.00000002E-24
   4.49999832E-02   1.00000002E-24
   4.99999784E-02   1.00000002E-24
   5.49999736E-02   1.00000002E-24
   5.99999763E-02   1.00000002E-24
   6.49999827E-02   1.00000002E-24
   6.99999779E-02   1.00000002E-24
   7.49999732E-02   1.00000002E-24
   7.99999684E-02   1.00000002E-24
   8.49999785E-02   1.00000002E-24
   8.99999738E-02   1.00000002E-24
   9.49999690E-02   1.00000002E-24
   9.99999791E-02   1.00000002E-24
  0.104999974       1.00000002E-24
  0.109999970       1.00000002E-24
  0.114999965       1.00000002E-24
  0.119999960       1.00000002E-24
  0.124999970       1.00000002E-24
  0.129999965       1.00000002E-24
  0.134999961       1.00000002E-24
  0.139999971       1.00000002E-24
  0.144999966       1.00000002E-24
  0.149999961       1.00000002E-24
  0.154999956       1.00000002E-24
  0.159999952       1.00000002E-24
  0.164999962       1.00000002E-24
  0.169999957       1.00000002E-24
  0.174999952       1.00000002E-24
  0.179999962       1.00000002E-24
  0.184999958       1.00000002E-24
  0.189999953       1.00000002E-24
  0.194999948       1.00000002E-24
  0.199999943       1.00000002E-24
  0.204999939       1.00000002E-24
  0.209999934       1.00000002E-24
  0.214999959       1.00000002E-24
  0.219999954       1.00000002E-24
  0.224999949       1.00000002E-24
  0.229999945       1.00000002E-24
  0.234999940       1.00000002E-24
  0.239999935       1.00000002E-24
  0.244999930       1.00000002E-24
  0.249999955       1.00000002E-24
  0.254999936       1.00000002E-24
  0.259999931       1.00000002E-24
  0.264999926       1.00000002E-24
  0.269999921       1.00000002E-24
  0.274999917       1.00000002E-24
  0.279999912       1.00000002E-24
  0.284999907       1.00000002E-24
  0.289999902       1.00000002E-24
  0.294999927       1.00000002E-24
  0.299999923       1.00000002E-24
  0.304999918       1.00000002E-24
  0.309999913       1.00000002E-24
  0.314999908       1.00000002E-24
  0.319999903       1.00000002E-24
  0.324999899       1.00000002E-24
  0.329999924       1.00000002E-24
  0.334999919       1.00000002E-24
  0.339999914       1.00000002E-24
  0.344999909       1.00000012E-24
  0.349999905       1.00000012E-24
  0.354999900       1.00000012E-24
  0.359999895       1.00000012E-24
  0.364999890       1.00000012E-24
  0.369999886       1.00000012E-24
  0.374999911       1.00000012E-24
  0.379999906       1.00000012E-24
  0.384999901       1.00000012E-24
  0.389999896       1.00000012E-24
  0.394999892       1.00000012E-24
  0.399999887       1.00000012E-24
  0.404999882       1.00000012E-24
  0.409999907       1.00000012E-24
  0.414999902       1.00000012E-24
  0.419999897       1.00000012E-24
  0.424999893       1.00000012E-24
  0.429999888       1.00000012E-24
  0.434999883       1.00000012E-24
  0.439999878       1.00000012E-24
  0.444999874       1.00000012E-24
  0.449999869       1.00000012E-24
  0.454999864       1.00000012E-24
  0.459999859       1.00000012E-24
  0.464999855       1.00000012E-24
  0.469999850       1.00000012E-24
  0.474999905       1.00000012E-24
  0.479999900       1.00000012E-24
  0.484999895       1.00000012E-24
  0.489999890       1.00000012E-24
  0.494999886       1.00000012E-24
  0.499999881       1.00000012E-24
  0.504999876       1.00000012E-24
  0.509999871       1.00000012E-24
  0.514999866       1.00000022E-24
  0.519999862       1.00000022E-24
  0.524999857       1.00000022E-24
  0.529999852       1.00000022E-24
  0.534999847       1.00000022E-24
  0.539999843       1.00000022E-24
  0.544999838       1.00000022E-24
  0.549999893       1.00000022E-24
  0.554999888       1.00000022E-24
  0.559999883       1.00000022E-24
  0.564999878       1.00000022E-24
  0.569999874       1.00000022E-24
  0.574999869       1.00000022E-24
  0.579999864       1.00000022E-24
  0.584999859       1.00000022E-24
  0.589999855       1.00000012E-24
  0.594999850       1.00000012E-24
  0.599999845       1.00000002E-24
  0.604999840       9.99999921E-25
  0.609999835       9.99999921E-25
  0.614999831       9.99999921E-25
  0.619999826       9.99999921E-25
  0.624999821       9.99999921E-25
  0.629999816       9.99999921E-25
  0.634999871       9.99999921E-25
  0.639999866       9.99999921E-25
  0.644999862       9.99999921E-25
  0.649999857       9.99999921E-25
  0.654999852       9.99999921E-25
  0.659999847       9.99999921E-25
  0.664999843       9.99999921E-25
  0.669999838       9.99999921E-25
  0.674999833       9.99999921E-25
  0.679999828       9.99999921E-25
  0.684999824       9.99999921E-25
  0.689999819       9.99999921E-25
  0.694999814       9.99999921E-25
  0.699999809       9.99999921E-25
  0.704999804       9.99999921E-25
  0.709999859       9.99999921E-25
  0.714999855       9.99999921E-25
  0.719999850       9.99999921E-25
  0.724999845       9.99999921E-25
  0.729999840       9.99999921E-25
  0.734999835       9.99999921E-25
  0.739999831       9.99999921E-25
  0.744999826       9.99999921E-25
  0.749999821       9.99999921E-25
  0.754999816       9.99999921E-25
  0.759999812       9.99999921E-25
  0.764999807       9.99999921E-25
  0.769999802       9.99999921E-25
  0.774999797       9.99999921E-25
  0.779999793       9.99999921E-25
  0.784999788       9.99999921E-25
  0.789999783       9.99999921E-25
  0.794999838       9.99999921E-25
  0.799999833       9.99999921E-25
  0.804999828       9.99999921E-25
  0.809999824       9.99999921E-25
  0.814999819       1.00000002E-24
  0.819999814       1.00000012E-24
  0.824999809       1.00000012E-24
  0.829999804       1.00000012E-24
  0.834999800       1.00000012E-24
  0.839999795       1.00000012E-24
  0.844999790       1.00000012E-24
  0.849999785       1.00000012E-24
  0.854999781       1.00000012E-24
  0.859999776       1.00000012E-24
  0.864999771       1.00000012E-24
  0.869999826       1.00000012E-24
  0.874999821       1.00000012E-24
  0.879999816       1.00000012E-24
  0.884999812       1.00000012E-24
  0.889999807       1.00000012E-24
  0.894999802       1.00000012E-24
  0.899999797       1.00000012E-24
  0.904999793       1.00000012E-24
  0.909999788       1.00000012E-24
  0.914999783       1.00000012E-24
  0.919999778       1.00000012E-24
  0.924999774       1.00000012E-24
  0.929999769       1.00000012E-24
  0.934999764       1.00000012E-24
  0.939999759       1.00000012E-24
  0.944999754       1.00000012E-24
  0.949999750       1.00000012E-24
  0.954999745       1.00000022E-24
  0.959999740       1.00000022E-24
  0.964999735       1.00000022E-24
  0.969999731       1.00000012E-24
  0.974999726       1.00000012E-24
  0.979999721       1.00000002E-24
  0.984999716       9.99999921E-25
  0.989999712       9.99999921E-25
  0.994999826       9.99999921E-25
  0.999999821       9.99999921E-25
   1.00499988       9.99999921E-25
   1.00999987       9.99999921E-25
   1.01499987       9.99999921E-25
   1.01999986       9.99999921E-25
   1.02499986       9.99999921E-25
   1.02999985       9.99999921E-25
   1.03499985       9.99999822E-25
   1.03999984       9.99999822E-25
   1.04499984       9.99999921E-25
   1.04999983       9.99999921E-25
   1.05499983       9.99999921E-25
   1.05999982       9.99999921E-25
   1.06499982       9.99999921E-25
   1.06999981       9.99999921E-25
   1.07499981       9.99999921E-25
   1.07999980       9.99999921E-25
   1.08499980       1.00000002E-24
   1.08999979       1.00000002E-24
   1.09499979       1.00000012E-24
   1.09999979       1.00000022E-24
   1.10499978       1.00000032E-24
   1.10999978       1.00000032E-24
   1.11499977       1.00000032E-24
   1.11999977       1.00000032E-24
   1.12499976       1.00000032E-24
   1.12999976       1.00000032E-24
   1.13499975       1.00000032E-24
   1.13999975       1.00000032E-24
   1.14499974       1.00000032E-24
   1.14999986       1.00000032E-24
   1.15499985       1.00000032E-24
   1.15999985       1.00000032E-24
   1.16499984       1.00000032E-24
   1.16999984       1.00000032E-24
   1.17499983       1.00000032E-24
   1.17999983       1.00000032E-24
   1.18499982       1.00000032E-24
   1.18999982       1.00000032E-24
   1.19499981       1.00000022E-24
   1.19999981       1.00000012E-24
   1.20499980       1.00000012E-24
   1.20999980       1.00000002E-24
   1.21499979       9.99999921E-25
   1.21999979       9.99999921E-25
   1.22499979       9.99999921E-25
   1.22999978       9.99999921E-25
   1.23499978       9.99999921E-25
   1.23999977       9.99999921E-25
   1.24499977       9.99999921E-25
   1.24999976       9.99999921E-25
   1.25499976       9.99999921E-25
   1.25999975       9.99999921E-25
   1.26499975       9.99999921E-25
   1.26999974       9.99999921E-25
   1.27499974       9.99999921E-25
   1.27999973       9.99999921E-25
   1.28499973       9.99999921E-25
   1.28999972       9.99999921E-25
   1.29499972       9.99999921E-25
   1.29999971       9.99999822E-25
   1.30499971       9.99999822E-25
   1.30999970       9.99999921E-25
   1.31499982       9.99999921E-25
   1.31999981       9.99999921E-25
   1.32499981       9.99999921E-25
   1.32999980       1.00000002E-24
   1.33499980       1.00000012E-24
   1.33999979       1.00000022E-24
   1.34499979       1.00000022E-24
   1.34999979       1.00000022E-24
   1.35499978       1.00000022E-24
   1.35999978       1.00000022E-24
   1.36499977       1.00000022E-24
   1.36999977       1.00000022E-24
   1.37499976       1.00000022E-24
   1.37999976       1.00000022E-24
   1.38499975       1.00000012E-24
   1.38999975       1.00000012E-24
   1.39499974       1.00000012E-24
   1.39999974       1.00000012E-24
   1.40499973       1.00000012E-24
   1.40999973       1.00000012E-24
   1.41499972       1.00000012E-24
   1.41999972       1.00000012E-24
   1.42499971       1.00000012E-24
   1.42999971       1.00000012E-24
   1.43499970       1.00000012E-24
   1.43999970       1.00000012E-24
   1.44499969       1.00000012E-24
   1.44999969       1.00000012E-24
   1.45499969       1.00000012E-24
   1.45999968       1.00000012E-24
   1.46499968       1.00000012E-24
   1.46999979       1.00000012E-24
   1.47499979       1.00000002E-24
   1.47999978       1.00000002E-24
   1.48499978       1.00000002E-24
   1.48999977       1.00000002E-24
   1.49499977       1.00000002E-24
   1.49999976       1.00000012E-24
   1.50499976       1.00000012E-24
   1.50999975       1.00000012E-24
   1.51499975       1.00000012E-24
   1.51999974       1.00000012E-24
   1.52499974       1.00000012E-24
   1.52999973       1.00000012E-24
   1.53499973       1.00000012E-24
   1.53999972       1.00000012E-24
   1.54499972       1.00000012E-24
   1.54999971       1.00000012E-24
   1.55499971       1.00000012E-24
   1.55999970       1.00000012E-24
   1.56499970       1.00000012E-24
   1.56999969       1.00000012E-24
   1.57499969       1.00000012E-24
   1.57999969       1.00000012E-24
   1.58499968       1.00000012E-24
   1.58999968       1.00000012E-24
   1.59499967       1.00000012E-24
   1.59999967       1.00000002E-24
   1.60499966       9.99999822E-25
   1.60999966       9.99999724E-25
   1.61499965       9.99999625E-25
   1.61999965       9.99999625E-25
   1.62499964       9.99999625E-25
   1.62999964       9.99999625E-25
   1.63499975       9.99999625E-25
   1.63999975       9.99999625E-25
   1.64499974       9.99999625E-25
   1.64999974       9.99999625E-25
   1.65499973       9.99999625E-25
   1.65999973       9.99999625E-25
   1.66499972       9.99999625E-25
   1.66999972       9.99999625E-25
   1.67499971       9.99999625E-25
   1.67999971       9.99999625E-25
   1.68499970       9.99999625E-25
   1.68999970       9.99999625E-25
   1.69499969       9.99999625E-25
   1.69999969       9.99999625E-25
   1.70499969       9.99999625E-25
   1.70999968       9.99999625E-25
   1.71499968       9.99999625E-25
   1.71999967       9.99999625E-25
   1.72499967       9.99999625E-25
   1.72999966       9.99999625E-25
   1.73499966       9.99999625E-25
   1.73999965       9.99999625E-25
   1.74499965       9.99999625E-25
   1.74999964       9.99999625E-25
   1.75499964       9.99999625E-25
   1.75999963       9.99999625E-25
   1.76499963       9.99999625E-25
   1.76999962       9.99999625E-25
   1.77499962       9.99999625E-25
   1.77999961       9.99999625E-25
   1.78499961       9.99999625E-25
   1.78999972       9.99999625E-25
   1.79499972       9.99999724E-25
   1.79999971       9.99999822E-25
   1.80499971       9.99999921E-25
   1.80999970       9.99999921E-25
   1.81499970       9.99999921E-25
   1.81999969       9.99999921E-25
   1.82499969       9.99999921E-25
   1.82999969       9.99999921E-25
   1.83499968       9.99999921E-25
   1.83999968       1.00000002E-24
   1.84499967       1.00000002E-24
   1.84999967       1.00000002E-24
   1.85499966       1.00000002E-24
   1.85999966       1.00000002E-24
   1.86499965       1.00000002E-24
   1.86999965       1.00000002E-24
   1.87499964       1.00000002E-24
   1.87999964       1.00000002E-24
   1.88499963       1.00000002E-24
   1.88999963       1.00000002E-24
   1.89499962       1.00000002E-24
   1.89999962       1.00000002E-24
   1.90499961       9.99999921E-25
   1.90999961       9.99999822E-25
   1.91499960       9.99999724E-25
   1.91999960       9.99999625E-25
   1.92499959       9.99999625E-25
   1.92999959       9.99999527E-25
   1.93499959       9.99999527E-25
   1.93999958       9.99999527E-25
   1.94499958       9.99999527E-25
   1.94999957       9.99999527E-25
   1.95499969       9.99999527E-25
   1.95999956       9.99999527E-25
   1.96499968       9.99999527E-25
   1.96999955       9.99999428E-25
   1.97499967       9.99999329E-25
   1.97999954       9.99999329E-25
   1.98499966       9.99999329E-25
   1.98999953       9.99999329E-25
   1.99499965       9.99999329E-25
   1.99999952       9.99999428E-25
   2.00499964       9.99999527E-25
   2.00999951       9.99999625E-25
   2.01499963       9.99999724E-25
   2.01999950       9.99999822E-25
   2.02499962       9.99999822E-25
   2.02999949       9.99999921E-25
   2.03499961       9.99999921E-25
   2.03999972       9.99999921E-25
   2.04499960       9.99999921E-25
   2.04999971       9.99999921E-25
   2.05499959       9.99999921E-25
   2.05999970       9.99999921E-25
   2.06499958       9.99999921E-25
   2.06999969       9.99999921E-25
   2.07499957       9.99999921E-25
   2.07999969       9.99999921E-25
   2.08499956       9.99999921E-25
   2.08999968       9.99999921E-25
   2.09499955       9.99999921E-25
   2.09999967       9.99999921E-25
   2.10499954       9.99999921E-25
   2.10999966       9.99999822E-25
   2.11499953       9.99999921E-25
   2.11999965       9.99999921E-25
   2.12499952       1.00000002E-24
   2.12999964       1.00000002E-24
   2.13499951       1.00000002E-24
   2.13999963       1.00000002E-24
   2.14499950       1.00000002E-24
   2.14999962       1.00000002E-24
   2.15499949       1.00000002E-24
   2.15999961       1.00000002E-24
   2.16499949       1.00000002E-24
   2.16999960       1.00000002E-24
   2.17499948       1.00000002E-24
   2.17999959       1.00000002E-24
   2.18499947       1.00000002E-24
   2.18999958       1.00000002E-24
   2.19499969       1.00000002E-24
   2.19999957       1.00000002E-24
   2.20499969       1.00000002E-24
   2.20999956       1.00000002E-24
   2.21499968       1.00000002E-24
   2.21999955       1.00000012E-24
   2.22499967       1.00000002E-24
   2.22999954       1.00000002E-24
   2.23499966       9.99999921E-25
   2.23999953       9.99999822E-25
   2.24499965       9.99999822E-25
   2.24999952       9.99999822E-25
   2.25499964       9.99999822E-25
   2.25999951       9.99999822E-25
   2.26499963       9.99999822E-25
   2.26999950       9.99999822E-25
   2.27499962       9.99999822E-25
   2.27999949       9.99999822E-25
   2.28499961       9.99999822E-25
   2.28999949       9.99999822E-25
   2.29499960       9.99999822E-25
   2.29999948       9.99999822E-25
   2.30499959       9.99999822E-25
   2.30999947       9.99999822E-25
   2.31499958       9.99999822E-25
   2.31999946       9.99999921E-25
   2.32499957       9.99999921E-25
   2.32999945       9.99999921E-25
   2.33499956       9.99999921E-25
   2.33999944       9.99999921E-25
   2.34499955       9.99999921E-25
   2.34999967       9.99999921E-25
   2.35499954       9.99999921E-25
   2.35999966       9.99999921E-25
   2.36499953       9.99999921E-25
   2.36999965       9.99999921E-25
   2.37499952       9.99999921E-25
   2.37999964       9.99999921E-25
   2.38499951       9.99999921E-25
   2.38999963       9.99999921E-25
   2.39499950       9.99999921E-25
   2.39999962       9.99999921E-25
   2.40499949       9.99999921E-25
   2.40999961       9.99999921E-25
   2.41499949       9.99999921E-25
   2.41999960       9.99999921E-25
   2.42499948       9.99999921E-25
   2.42999959       9.99999921E-25
   2.43499947       9.99999921E-25
   2.43999958       9.99999921E-25
   2.44499946       9.99999921E-25
   2.44999957       9.99999921E-25
   2.45499945       9.99999921E-25
   2.45999956       9.99999921E-25
   2.46499944       9.99999921E-25
   2.46999955       9.99999921E-25
   2.47499943       9.99999921E-25
   2.47999954       9.99999921E-25
   2.48499942       9.99999921E-25
   2.48999953       9.99999921E-25
   2.49499941       9.99999921E-25
   2.49999952       9.99999921E-25
   2.50499940       9.99999921E-25
   2.50999951       9.99999822E-25
   2.51499963       9.99999724E-25
   2.51999950       9.99999625E-25
   2.52499962       9.99999625E-25
   2.52999949       9.99999527E-25
   2.53499961       9.99999527E-25
   2.53999949       9.99999527E-25
   2.54499960       9.99999527E-25
   2.54999948       9.99999527E-25
   2.55499959       9.99999428E-25
   2.55999947       9.99999428E-25
   2.56499958       9.99999527E-25
   2.56999946       9.99999527E-25
   2.57499957       9.99999527E-25
   2.57999945       9.99999527E-25
   2.58499956       9.99999527E-25
   2.58999944       9.99999527E-25
   2.59499955       9.99999527E-25
   2.59999943       9.99999527E-25
   2.60499954       9.99999527E-25
   2.60999942       9.99999428E-25
   2.61499953       9.99999428E-25
   2.61999941       9.99999428E-25
   2.62499952       9.99999428E-25
   2.62999940       9.99999428E-25
   2.63499951       9.99999428E-25
   2.63999939       9.99999428E-25
   2.64499950       9.99999428E-25
   2.64999938       9.99999428E-25
   2.65499949       9.99999428E-25
   2.65999937       9.99999428E-25
   2.66499949       9.99999428E-25
   2.66999936       9.99999428E-25
   2.67499948       9.99999428E-25
   2.67999959       9.99999428E-25
   2.68499947       9.99999428E-25
   2.68999958       9.99999428E-25
   2.69499946       9.99999428E-25
   2.69999957       9.99999428E-25
   2.70499945       9.99999428E-25
   2.70999956       9.99999428E-25
   2.71499944       9.99999428E-25
   2.71999955       9.99999428E-25
   2.72499943       9.99999428E-25
   2.72999954       9.99999428E-25
   2.73499942       9.99999428E-25
   2.73999953       9.99999428E-25
   2.74499941       9.99999428E-25
   2.74999952       9.99999527E-25
   2.75499940       9.99999527E-25
   2.75999951       9.99999527E-25
   2.76499939       9.99999527E-25
   2.76999950       9.99999527E-25
   2.77499938       9.99999527E-25
   2.77999949       9.99999527E-25
   2.78499937       9.99999527E-25
   2.78999949       9.99999527E-25
   2.79499936       9.99999527E-25
   2.79999948       9.99999527E-25
   2.80499935       9.99999527E-25
   2.80999947       9.99999527E-25
   2.81499934       9.99999527E-25
   2.81999946       9.99999527E-25
   2.82499933       9.99999527E-25
   2.82999945       9.99999527E-25
   2.83499956       9.99999527E-25
   2.83999944       9.99999527E-25
   2.84499955       9.99999527E-25
   2.84999943       9.99999527E-25
   2.85499954       9.99999527E-25
   2.85999942       9.99999625E-25
   2.86499953       9.99999625E-25
   2.86999941       9.99999625E-25
   2.87499952       9.99999625E-25
   2.87999940       9.99999625E-25
   2.88499951       9.99999625E-25
   2.88999939       9.99999625E-25
   2.89499950       9.99999625E-25
   2.89999938       9.99999625E-25
   2.90499949       9.99999625E-25
   2.90999937       9.99999527E-25
   2.91499949       9.99999527E-25
   2.91999936       9.99999527E-25
   2.92499948       9.99999527E-25
   2.92999935       9.99999527E-25
   2.93499947       9.99999527E-25
   2.93999934       9.99999527E-25
   2.94499946       9.99999527E-25
   2.94999933       9.99999527E-25
   2.95499945       9.99999527E-25
   2.95999932       9.99999527E-25
   2.96499944       9.99999625E-25
   2.96999931       9.99999625E-25
   2.97499943       9.99999625E-25
   2.97999930       9.99999625E-25
   2.98499942       9.99999625E-25
   2.98999953       9.99999625E-25
   2.99499941       9.99999625E-25
   2.99999952       9.99999625E-25
   3.00499940       9.99999625E-25
   3.00999951       9.99999625E-25
   3.01499939       9.99999625E-25
   3.01999950       9.99999625E-25
   3.02499938       9.99999724E-25
   3.02999949       9.99999724E-25
   3.03499937       9.99999724E-25
   3.03999949       9.99999625E-25
   3.04499936       9.99999527E-25
   3.04999948       9.99999527E-25
   3.05499935       9.99999428E-25
   3.05999947       9.99999428E-25
   3.06499934       9.99999428E-25
   3.06999946       9.99999428E-25
   3.07499933       9.99999428E-25
   3.07999945       9.99999428E-25
   3.08499932       9.99999428E-25
   3.08999944       9.99999428E-25
   3.09499931       9.99999428E-25
   3.09999943       9.99999329E-25
   3.10499930       9.99999329E-25
   3.10999942       9.99999329E-25
   3.11499929       9.99999329E-25
   3.11999941       9.99999329E-25
   3.12499928       9.99999329E-25
   3.12999940       9.99999329E-25
   3.13499928       9.99999329E-25
   3.13999939       9.99999329E-25
   3.14499927       9.99999329E-25
   3.14999938       9.99999329E-25
   3.15499949       9.99999329E-25
   3.15999937       9.99999329E-25
   3.16499949       9.99999329E-25
   3.16999936       9.99999329E-25
   3.17499948       9.99999428E-25
   3.17999935       9.99999527E-25
   3.18499947       9.99999527E-25
   3.18999934       9.99999527E-25
   3.19499946       9.99999527E-25
   3.19999933       9.99999527E-25
   3.20499945       9.99999527E-25
   3.20999932       9.99999527E-25
   3.21499944       9.99999527E-25
   3.21999931       9.99999527E-25
   3.22499943       9.99999527E-25
   3.22999930       9.99999527E-25
   3.23499942       9.99999527E-25
   3.23999929       9.99999527E-25
   3.24499941       9.99999527E-25
   3.24999928       9.99999527E-25
   3.25499940       9.99999527E-25
   3.25999928       9.99999527E-25
   3.26499939       9.99999527E-25
   3.26999927       9.99999527E-25
   3.27499938       9.99999527E-25
   3.27999926       9.99999527E-25
   3.28499937       9.99999527E-25
   3.28999925       9.99999428E-25
   3.29499936       9.99999428E-25
   3.29999924       9.99999428E-25
   3.30499935       9.99999428E-25
   3.30999923       9.99999428E-25
   3.31499934       9.99999428E-25
   3.31999946       9.99999428E-25
   3.32499933       9.99999428E-25
   3.32999945       9.99999428E-25
   3.33499932       9.99999428E-25
   3.33999944       9.99999428E-25
   3.34499931       9.99999428E-25
   3.34999943       9.99999428E-25
   3.35499930       9.99999428E-25
   3.35999942       9.99999428E-25
   3.36499929       9.99999428E-25
   3.36999941       9.99999527E-25
   3.37499928       9.99999527E-25
   3.37999940       9.99999527E-25
   3.38499928       9.99999527E-25
   3.38999939       9.99999527E-25
   3.39499927       9.99999527E-25
   3.39999938       9.99999527E-25
   3.40499926       9.99999428E-25
   3.40999937       9.99999428E-25
   3.41499925       9.99999527E-25
   3.41999936       9.99999527E-25
   3.42499924       9.99999428E-25
   3.42999935       9.99999428E-25
   3.43499923       9.99999428E-25
   3.43999934       9.99999428E-25
   3.44499922       9.99999428E-25
   3.44999933       9.99999428E-25
   3.45499921       9.99999428E-25
   3.45999932       9.99999428E-25
   3.46499920       9.99999428E-25
   3.46999931       9.99999428E-25
   3.47499943       9.99999428E-25
   3.47999930       9.99999329E-25
   3.48499942       9.99999329E-25
   3.48999929       9.99999329E-25
   3.49499941       9.99999329E-25
   3.49999928       9.99999329E-25
   3.50499940       9.99999329E-25
   3.50999928       9.99999329E-25
   3.51499939       9.99999329E-25
   3.51999927       9.99999329E-25
   3.52499938       9.99999428E-25
   3.52999926       9.99999527E-25
   3.53499937       9.99999625E-25
   3.53999925       9.99999625E-25
   3.54499936       9.99999625E-25
   3.54999924       9.99999527E-25
   3.55499935       9.99999428E-25
   3.55999923       9.99999428E-25
   3.56499934       9.99999329E-25
   3.56999922       9.99999329E-25
   3.57499933       9.99999231E-25
   3.57999921       9.99999231E-25
   3.58499932       9.99999231E-25
   3.58999920       9.99999231E-25
   3.59499931       9.99999231E-25
   3.59999919       9.99999231E-25
   3.60499930       9.99999132E-25
   3.60999918       9.99999132E-25
   3.61499929       9.99999132E-25
   3.61999917       9.99999132E-25
   3.62499928       9.99999132E-25
   3.62999940       9.99999231E-25
   3.63499928       9.99999231E-25
   3.63999939       9.99999231E-25
   3.64499927       9.99999231E-25
   3.64999938       9.99999231E-25
   3.65499926       9.99999132E-25
   3.65999937       9.99999132E-25
   3.66499925       9.99999132E-25
   3.66999936       9.99999132E-25
   3.67499924       9.99999132E-25
   3.67999935       9.99999132E-25
   3.68499923       9.99999132E-25
   3.68999934       9.99999231E-25
   3.69499922       9.99999329E-25
   3.69999933       9.99999428E-25
   3.70499921       9.99999428E-25
   3.70999932       9.99999428E-25
   3.71499920       9.99999329E-25
   3.71999931       9.99999329E-25
   3.72499919       9.99999231E-25
   3.72999930       9.99999132E-25
   3.73499918       9.99999033E-25
   3.73999929       9.99999033E-25
   3.74499917       9.99999033E-25
   3.74999928       9.99999033E-25
   3.75499916       9.99999132E-25
   3.75999928       9.99999132E-25
   3.76499915       9.99999132E-25
   3.76999927       9.99999132E-25
   3.77499914       9.99999231E-25
   3.77999926       9.99999231E-25
   3.78499913       9.99999231E-25
   3.78999925       9.99999231E-25
   3.79499936       9.99999231E-25
   3.79999924       9.99999231E-25
   3.80499935       9.99999231E-25
   3.80999923       9.99999231E-25
   3.81499934       9.99999231E-25
   3.81999922       9.99999132E-25
   3.82499933       9.99999132E-25
   3.82999921       9.99999132E-25
   3.83499932       9.99999132E-25
   3.83999920       9.99999132E-25
   3.84499931       9.99999132E-25
   3.84999919       9.99999033E-25
   3.85499930       9.99999033E-25
   3.85999918       9.99999033E-25
   3.86499929       9.99998935E-25
   3.86999917       9.99998935E-25
   3.87499928       9.99998935E-25
   3.87999916       9.99998935E-25
   3.88499928       9.99998935E-25
   3.88999915       9.99998935E-25
   3.89499927       9.99998935E-25
   3.89999914       9.99998935E-25
   3.90499926       9.99998935E-25
   3.90999913       9.99998935E-25
   3.91499925       9.99998935E-25
   3.91999912       9.99999033E-25
   3.92499924       9.99999033E-25
   3.92999911       9.99999132E-25
   3.93499923       9.99999231E-25
   3.93999910       9.99999329E-25
   3.94499922       9.99999428E-25
   3.94999909       9.99999527E-25
   3.95499921       9.99999625E-25
   3.95999932       9.99999625E-25
   3.96499944       9.99999625E-25
   3.96999907       9.99999625E-25
   3.97499919       9.99999625E-25
   3.97999930       9.99999625E-25
   3.98499942       9.99999527E-25
   3.98999906       9.99999428E-25
   3.99499917       9.99999428E-25
   3.99999928       9.99999428E-25
   4.00499916       9.99999428E-25
   4.00999880       9.99999428E-25
   4.01499891       9.99999428E-25
   4.01999903       9.99999428E-25
   4.02499914       9.99999329E-25
   4.02999878       9.99999231E-25
   4.03499889       9.99999132E-25
   4.03999901       9.99999033E-25
   4.04499912       9.99998935E-25
   4.04999876       9.99998836E-25
   4.05499887       9.99998836E-25
   4.05999899       9.99998738E-25
   4.06499910       9.99998738E-25
   4.06999874       9.99998738E-25
   4.07499886       9.99998738E-25
   4.07999897       9.99998738E-25
   4.08499908       9.99998738E-25
   4.08999872       9.99998738E-25
   4.09499884       9.99998738E-25
   4.09999895       9.99998738E-25
   4.10499907       9.99998738E-25
   4.10999870       9.99998738E-25
   4.11499882       9.99998738E-25
   4.11999893       9.99998836E-25
   4.12499905       9.99998935E-25
   4.12999916       9.99999033E-25
   4.13499880       9.99999033E-25
   4.13999891       9.99999132E-25
   4.14499903       9.99999231E-25
   4.14999914       9.99999231E-25
   4.15499878       9.99999329E-25
   4.15999889       9.99999329E-25
   4.16499901       9.99999329E-25
   4.16999912       9.99999329E-25
   4.17499876       9.99999329E-25
   4.17999887       9.99999329E-25
   4.18499899       9.99999329E-25
   4.18999910       9.99999329E-25
   4.19499874       9.99999329E-25
   4.19999886       9.99999231E-25
   4.20499897       9.99999132E-25
   4.20999908       9.99999132E-25
   4.21499872       9.99999033E-25
   4.21999884       9.99999033E-25
   4.22499895       9.99999132E-25
   4.22999907       9.99999231E-25